LAMMPS (21 Nov 2023)
  using 24 OpenMP thread(s) per MPI task
units           metal

atom_style      atomic
atom_modify     map array
boundary        p p p
atom_modify     sort 0 0.0

# first, load initial file

read_restart .data_files/data.${initial}
read_restart .data_files/data.1
Reading restart file ...
  restart file = 21 Nov 2023, LAMMPS = 21 Nov 2023
WARNING: Restart file used different # of processors: 1 vs. 16 (src/read_restart.cpp:626)
  restoring atom style atomic from restart
  orthogonal box = (0 0 0) to (21.724 21.724 21.724)
  2 by 2 by 4 MPI processor grid
  pair style sw stores no restart info
  511 atoms
  read_restart CPU = 0.004 seconds
include ${potential_file}
include example/Si.pot
pair_style sw
pair_coeff * * example/Si.sw Si
Reading sw potential file example/Si.sw with DATE: 2007-06-11

min_style cg
min_modify line quadratic
minimize ${etol} ${ftol} ${maxsteps} ${maxsteps}
minimize 0 ${ftol} ${maxsteps} ${maxsteps}
minimize 0 1e-05 ${maxsteps} ${maxsteps}
minimize 0 1e-05 10000 ${maxsteps}
minimize 0 1e-05 10000 10000
Neighbor list info ...
  update: every = 1 steps, delay = 0 steps, check = yes
  max neighbors/atom: 2000, page size: 100000
  master list distance cutoff = 5.77118
  ghost atom cutoff = 5.77118
  binsize = 2.88559, bins = 8 8 8
  1 neighbor lists, perpetual/occasional/extra = 1 0 0
  (1) pair sw, perpetual
      attributes: full, newton on
      pair build: full/bin/atomonly
      stencil: full/bin/3d
      bin: standard
Per MPI rank memory allocation (min/avg/max) = 24.35 | 24.35 | 24.35 Mbytes
   Step          Temp          E_pair         E_mol          TotEng         Press     
      3339   5.3137912e-24 -2213.3374      0             -2213.3374     -3383.3946    
      3340   5.3137912e-24 -2213.3374      0             -2213.3374     -3383.3946    
Loop time of 0.000274795 on 384 procs for 1 steps with 511 atoms

87.5% CPU use with 16 MPI tasks x 24 OpenMP threads

Minimization stats:
  Stopping criterion = force tolerance
  Energy initial, next-to-last, final = 
     -2213.33738910318  -2213.33738910318  -2213.33738910318
  Force two-norm initial, final = 2.8734131e-12 5.0468822e-13
  Force max component initial, final = 4.1217203e-13 5.2544774e-14
  Final line search alpha, max atom move = 1 5.2544774e-14
  Iterations, force evaluations = 1 2

MPI task timing breakdown:
Section |  min time  |  avg time  |  max time  |%varavg| %total
---------------------------------------------------------------
Pair    | 4.8706e-05 | 6.3749e-05 | 0.00010502 |   0.0 | 23.20
Neigh   | 0          | 0          | 0          |   0.0 |  0.00
Comm    | 7.4164e-05 | 0.00011241 | 0.00012635 |   0.0 | 40.91
Output  | 0          | 0          | 0          |   0.0 |  0.00
Modify  | 0          | 0          | 0          |   0.0 |  0.00
Other   |            | 9.863e-05  |            |       | 35.89

Nlocal:        31.9375 ave          42 max          26 min
Histogram: 3 6 0 0 1 0 3 2 0 1
Nghost:        443.062 ave         449 max         433 min
Histogram: 1 0 2 3 0 1 0 0 6 3
Neighs:              0 ave           0 max           0 min
Histogram: 16 0 0 0 0 0 0 0 0 0
FullNghs:      1085.25 ave        1425 max         884 min
Histogram: 3 6 0 0 1 0 3 2 0 1

Total # of neighbors = 17364
Ave neighs/atom = 33.980431
Neighbor list builds = 0
Dangerous builds = 0
reset_timestep 0

dynamical_matrix all eskm ${dx} file ${dynmat_init} binary no
dynamical_matrix all eskm 1e-06 file ${dynmat_init} binary no
dynamical_matrix all eskm 1e-06 file example/dynmat_init.dat binary no
Loop time of 0.672412 on 384 procs for 3066 steps with 511 atoms

Performance: 3939.584 ns/day, 0.006 hours/ns, 4559.703 timesteps/s, 2.330 Matom-step/s
100.6% CPU use with 16 MPI tasks x 24 OpenMP threads

MPI task timing breakdown:
Section |  min time  |  avg time  |  max time  |%varavg| %total
---------------------------------------------------------------
Pair    | 0.05753    | 0.11204    | 0.59995    |  38.0 | 16.66
Neigh   | 0          | 0          | 0          |   0.0 |  0.00
Comm    | 0.071381   | 0.55929    | 0.6138     |  17.0 | 83.18
Output  | 0          | 0          | 0          |   0.0 |  0.00
Modify  | 0          | 0          | 0          |   0.0 |  0.00
Other   |            | 0.001077   |            |       |  0.16

Nlocal:        31.9375 ave          42 max          26 min
Histogram: 3 6 0 0 1 0 3 2 0 1
Nghost:        443.062 ave         449 max         433 min
Histogram: 1 0 2 3 0 1 0 0 6 3
Neighs:              0 ave           0 max           0 min
Histogram: 16 0 0 0 0 0 0 0 0 0
FullNghs:      1085.25 ave        1425 max         884 min
Histogram: 3 6 0 0 1 0 3 2 0 1

Total # of neighbors = 17364
Ave neighs/atom = 33.980431
Neighbor list builds = 1
Dangerous builds = 0

clear
  using 24 OpenMP thread(s) per MPI task
read_restart .data_files/data.${saddle}
read_restart .data_files/data.9
Reading restart file ...
  restart file = 21 Nov 2023, LAMMPS = 21 Nov 2023
WARNING: Restart file used different # of processors: 1 vs. 16 (src/read_restart.cpp:626)
  restoring atom style atomic from restart
  orthogonal box = (0 0 0) to (21.724 21.724 21.724)
  2 by 2 by 4 MPI processor grid
  pair style sw stores no restart info
  511 atoms
  read_restart CPU = 0.002 seconds
include ${potential_file}
include example/Si.pot
pair_style sw
pair_coeff * * example/Si.sw Si
Reading sw potential file example/Si.sw with DATE: 2007-06-11

reset_timestep 0

dynamical_matrix all eskm ${dx} file ${dynmat_saddle} binary no
dynamical_matrix all eskm 1e-06 file ${dynmat_saddle} binary no
dynamical_matrix all eskm 1e-06 file example/dynmat_saddle.dat binary no
Neighbor list info ...
  update: every = 1 steps, delay = 0 steps, check = yes
  max neighbors/atom: 2000, page size: 100000
  master list distance cutoff = 5.77118
  ghost atom cutoff = 5.77118
  binsize = 2.88559, bins = 8 8 8
  1 neighbor lists, perpetual/occasional/extra = 1 0 0
  (1) pair sw, perpetual
      attributes: full, newton on
      pair build: full/bin/atomonly
      stencil: full/bin/3d
      bin: standard
Loop time of 0.66913 on 384 procs for 3066 steps with 511 atoms

Performance: 3958.908 ns/day, 0.006 hours/ns, 4582.070 timesteps/s, 2.341 Matom-step/s
99.7% CPU use with 16 MPI tasks x 24 OpenMP threads

MPI task timing breakdown:
Section |  min time  |  avg time  |  max time  |%varavg| %total
---------------------------------------------------------------
Pair    | 0.053689   | 0.11233    | 0.60299    |  38.2 | 16.79
Neigh   | 0          | 0          | 0          |   0.0 |  0.00
Comm    | 0.06505    | 0.55571    | 0.61436    |  17.2 | 83.05
Output  | 0          | 0          | 0          |   0.0 |  0.00
Modify  | 0          | 0          | 0          |   0.0 |  0.00
Other   |            | 0.001086   |            |       |  0.16

Nlocal:        31.9375 ave          42 max          24 min
Histogram: 1 1 6 0 2 0 4 0 1 1
Nghost:        443.062 ave         451 max         433 min
Histogram: 1 1 0 4 0 2 0 6 1 1
Neighs:              0 ave           0 max           0 min
Histogram: 16 0 0 0 0 0 0 0 0 0
FullNghs:         1086 ave        1433 max         816 min
Histogram: 1 1 6 0 2 0 4 0 1 1

Total # of neighbors = 17376
Ave neighs/atom = 34.003914
Neighbor list builds = 1
Dangerous builds = 0
Total wall time: 0:00:03
