LAMMPS (21 Nov 2023)
  using 24 OpenMP thread(s) per MPI task
units           metal

atom_style      atomic
atom_modify     map array
boundary        p p p
atom_modify     sort 0 0.0

# first, load initial file

read_restart .data_files/data.${initial}
read_restart .data_files/data.1
Reading restart file ...
  restart file = 21 Nov 2023, LAMMPS = 21 Nov 2023
WARNING: Restart file used different # of processors: 1 vs. 16 (src/read_restart.cpp:626)
  restoring atom style atomic from restart
  orthogonal box = (0 0 0) to (21.724 21.724 21.724)
  2 by 2 by 4 MPI processor grid
  pair style sw stores no restart info
  511 atoms
  read_restart CPU = 0.004 seconds
include ${potential_file}
include example/Si.pot
pair_style sw
pair_coeff * * example/Si.sw Si
Reading sw potential file example/Si.sw with DATE: 2007-06-11

min_style cg
min_modify line quadratic
minimize ${etol} ${ftol} ${maxsteps} ${maxsteps}
minimize 0 ${ftol} ${maxsteps} ${maxsteps}
minimize 0 1e-05 ${maxsteps} ${maxsteps}
minimize 0 1e-05 10000 ${maxsteps}
minimize 0 1e-05 10000 10000
Neighbor list info ...
  update: every = 1 steps, delay = 0 steps, check = yes
  max neighbors/atom: 2000, page size: 100000
  master list distance cutoff = 5.77118
  ghost atom cutoff = 5.77118
  binsize = 2.88559, bins = 8 8 8
  1 neighbor lists, perpetual/occasional/extra = 1 0 0
  (1) pair sw, perpetual
      attributes: full, newton on
      pair build: full/bin/atomonly
      stencil: full/bin/3d
      bin: standard
Per MPI rank memory allocation (min/avg/max) = 24.35 | 24.35 | 24.35 Mbytes
   Step          Temp          E_pair         E_mol          TotEng         Press     
      3339   5.3137912e-24 -2213.3374      0             -2213.3374     -3383.3946    
      3340   5.3137912e-24 -2213.3374      0             -2213.3374     -3383.3946    
Loop time of 0.000279485 on 384 procs for 1 steps with 511 atoms

125.4% CPU use with 16 MPI tasks x 24 OpenMP threads

Minimization stats:
  Stopping criterion = force tolerance
  Energy initial, next-to-last, final = 
     -2213.33738910318  -2213.33738910318  -2213.33738910318
  Force two-norm initial, final = 2.8734131e-12 5.0468822e-13
  Force max component initial, final = 4.1217203e-13 5.2544774e-14
  Final line search alpha, max atom move = 1 5.2544774e-14
  Iterations, force evaluations = 1 2

MPI task timing breakdown:
Section |  min time  |  avg time  |  max time  |%varavg| %total
---------------------------------------------------------------
Pair    | 4.9097e-05 | 6.4909e-05 | 0.00010748 |   0.0 | 23.22
Neigh   | 0          | 0          | 0          |   0.0 |  0.00
Comm    | 6.0519e-05 | 0.00010103 | 0.00011739 |   0.0 | 36.15
Output  | 0          | 0          | 0          |   0.0 |  0.00
Modify  | 0          | 0          | 0          |   0.0 |  0.00
Other   |            | 0.0001135  |            |       | 40.63

Nlocal:        31.9375 ave          42 max          26 min
Histogram: 3 6 0 0 1 0 3 2 0 1
Nghost:        443.062 ave         449 max         433 min
Histogram: 1 0 2 3 0 1 0 0 6 3
Neighs:              0 ave           0 max           0 min
Histogram: 16 0 0 0 0 0 0 0 0 0
FullNghs:      1085.25 ave        1425 max         884 min
Histogram: 3 6 0 0 1 0 3 2 0 1

Total # of neighbors = 17364
Ave neighs/atom = 33.980431
Neighbor list builds = 0
Dangerous builds = 0
reset_timestep 0

dynamical_matrix all eskm ${dx} file ${dynmat_init} binary no
dynamical_matrix all eskm 1e-06 file ${dynmat_init} binary no
dynamical_matrix all eskm 1e-06 file example/dynmat_init.dat binary no
Loop time of 0.701221 on 384 procs for 3066 steps with 511 atoms

Performance: 3777.732 ns/day, 0.006 hours/ns, 4372.376 timesteps/s, 2.234 Matom-step/s
102.2% CPU use with 16 MPI tasks x 24 OpenMP threads

MPI task timing breakdown:
Section |  min time  |  avg time  |  max time  |%varavg| %total
---------------------------------------------------------------
Pair    | 0.06088    | 0.11282    | 0.60177    |  38.0 | 16.09
Neigh   | 0          | 0          | 0          |   0.0 |  0.00
Comm    | 0.098377   | 0.58732    | 0.63927    |  16.6 | 83.76
Output  | 0          | 0          | 0          |   0.0 |  0.00
Modify  | 0          | 0          | 0          |   0.0 |  0.00
Other   |            | 0.001072   |            |       |  0.15

Nlocal:        31.9375 ave          42 max          26 min
Histogram: 3 6 0 0 1 0 3 2 0 1
Nghost:        443.062 ave         449 max         433 min
Histogram: 1 0 2 3 0 1 0 0 6 3
Neighs:              0 ave           0 max           0 min
Histogram: 16 0 0 0 0 0 0 0 0 0
FullNghs:      1085.25 ave        1425 max         884 min
Histogram: 3 6 0 0 1 0 3 2 0 1

Total # of neighbors = 17364
Ave neighs/atom = 33.980431
Neighbor list builds = 1
Dangerous builds = 0

clear
  using 24 OpenMP thread(s) per MPI task
read_restart .data_files/data.${saddle}
read_restart .data_files/data.9
Reading restart file ...
  restart file = 21 Nov 2023, LAMMPS = 21 Nov 2023
WARNING: Restart file used different # of processors: 1 vs. 16 (src/read_restart.cpp:626)
  restoring atom style atomic from restart
  orthogonal box = (0 0 0) to (21.724 21.724 21.724)
  2 by 2 by 4 MPI processor grid
  pair style sw stores no restart info
  511 atoms
  read_restart CPU = 0.002 seconds
include ${potential_file}
include example/Si.pot
pair_style sw
pair_coeff * * example/Si.sw Si
Reading sw potential file example/Si.sw with DATE: 2007-06-11

reset_timestep 0

dynamical_matrix all eskm ${dx} file ${dynmat_saddle} binary no
dynamical_matrix all eskm 1e-06 file ${dynmat_saddle} binary no
dynamical_matrix all eskm 1e-06 file example/dynmat_saddle.dat binary no
Neighbor list info ...
  update: every = 1 steps, delay = 0 steps, check = yes
  max neighbors/atom: 2000, page size: 100000
  master list distance cutoff = 5.77118
  ghost atom cutoff = 5.77118
  binsize = 2.88559, bins = 8 8 8
  1 neighbor lists, perpetual/occasional/extra = 1 0 0
  (1) pair sw, perpetual
      attributes: full, newton on
      pair build: full/bin/atomonly
      stencil: full/bin/3d
      bin: standard
Loop time of 0.684474 on 384 procs for 3066 steps with 511 atoms

Performance: 3870.159 ns/day, 0.006 hours/ns, 4479.351 timesteps/s, 2.289 Matom-step/s
100.4% CPU use with 16 MPI tasks x 24 OpenMP threads

MPI task timing breakdown:
Section |  min time  |  avg time  |  max time  |%varavg| %total
---------------------------------------------------------------
Pair    | 0.058822   | 0.11309    | 0.60188    |  38.0 | 16.52
Neigh   | 0          | 0          | 0          |   0.0 |  0.00
Comm    | 0.081523   | 0.57031    | 0.62458    |  16.9 | 83.32
Output  | 0          | 0          | 0          |   0.0 |  0.00
Modify  | 0          | 0          | 0          |   0.0 |  0.00
Other   |            | 0.001071   |            |       |  0.16

Nlocal:        31.9375 ave          42 max          24 min
Histogram: 1 1 6 0 2 0 4 0 1 1
Nghost:        443.062 ave         451 max         433 min
Histogram: 1 1 0 4 0 2 0 6 1 1
Neighs:              0 ave           0 max           0 min
Histogram: 16 0 0 0 0 0 0 0 0 0
FullNghs:         1086 ave        1433 max         816 min
Histogram: 1 1 6 0 2 0 4 0 1 1

Total # of neighbors = 17376
Ave neighs/atom = 34.003914
Neighbor list builds = 1
Dangerous builds = 0
Total wall time: 0:00:03
