LAMMPS (21 Nov 2023)
Running on 16 partitions of processors
    Step     MaxReplicaForce  MaxAtomForce      GradV0         GradV1         GradVc          EBF            EBR            RDT            RD1            PE1            RD2            PE2            RD3            PE3            RD4            PE4            RD5            PE5            RD6            PE6            RD7            PE7            RD8            PE8            RD9            PE9            RD10           PE10           RD11           PE11           RD12           PE12           RD13           PE13           RD14           PE14           RD15           PE15           RD16           PE16      
         0   7.5238098        2.5492643      8.922489e-06   7.5238098      7.5238098      1.536065       0              1.6208215      0              -2213.3374     0.066666667    -2213.3018     0.13333333     -2213.2054     0.2            -2213.0668     0.26666667     -2212.9071     0.33333333     -2212.7454     0.4            -2212.5958     0.46666667     -2212.4669     0.53333333     -2212.3631     0.6            -2212.2845     0.66666667     -2212.227      0.73333333     -2212.1823     0.8            -2212.1368     0.86666667     -2212.0719     0.93333333     -2211.9663     1              -2211.8013     
      1000   0.00041915111    5.3683021e-09  8.0094277e-13  8.8547718e-13  0.16938572     0.50532602     0.50532602     1.8510266      0              -2213.3374     0.066192785    -2213.326      0.13240841     -2213.2742     0.1986656      -2213.1844     0.26498112     -2213.0743     0.33136945     -2212.9658     0.39784225     -2212.8809     0.46440785     -2212.8341     0.53107085     -2212.8321     0.59783189     -2212.8752     0.66468752     -2212.9578     0.73163029     -2213.0661     0.7986489      -2213.178      0.86572871     -2213.2705     0.93285233     -2213.3249     1              -2213.3374     
      2000   2.998184e-05     8.9030577e-11  1.2980158e-12  1.3188701e-12  0.18080123     0.50465739     0.50465739     1.8510225      0              -2213.3374     0.066604989    -2213.3258     0.13321302     -2213.2732     0.19982657     -2213.1825     0.26644785     -2213.0716     0.33307874     -2212.9631     0.3997207      -2212.8789     0.46637476     -2212.8334     0.53304144     -2212.8327     0.59972074     -2212.8771     0.66641213     -2212.9605     0.7331146      -2213.0688     0.79982667     -2213.18       0.86654644     -2213.2715     0.93327172     -2213.3252     1              -2213.3374     
      2426   9.8037915e-06    1.5676408e-11  3.2489463e-13  3.3982947e-13  0.18178173     0.50459787     0.50459787     1.8510218      0              -2213.3374     0.066640786    -2213.3258     0.13328285     -2213.2731     0.19992723     -2213.1823     0.26657485     -2213.0714     0.3332265      -2212.9629     0.3998828      -2212.8787     0.46654418     -2212.8333     0.53321085     -2212.8328     0.59988282     -2212.8773     0.66655986     -2212.9608     0.73324156     -2213.069      0.79992727     -2213.1802     0.86661622     -2213.2716     0.93330748     -2213.3252     1              -2213.3374     
Climbing replica = 9
    Step     MaxReplicaForce  MaxAtomForce      GradV0         GradV1         GradVc          EBF            EBR            RDT            RD1            PE1            RD2            PE2            RD3            PE3            RD4            PE4            RD5            PE5            RD6            PE6            RD7            PE7            RD8            PE8            RD9            PE9            RD10           PE10           RD11           PE11           RD12           PE12           RD13           PE13           RD14           PE14           RD15           PE15           RD16           PE16      
      2426   0.18178173       0.005415499    3.2489463e-13  3.4145889e-13  0.18178173     0.50459787     0.50459787     1.8510218      0              -2213.3374     0.066640786    -2213.3258     0.13328285     -2213.2731     0.19992723     -2213.1823     0.26657485     -2213.0714     0.3332265      -2212.9629     0.3998828      -2212.8787     0.46654418     -2212.8333     0.53321085     -2212.8328     0.59988282     -2212.8773     0.66655986     -2212.9608     0.73324156     -2213.069      0.79992727     -2213.1802     0.86661622     -2213.2716     0.93330748     -2213.3252     1              -2213.3374     
      3339   9.851073e-06     1.5962281e-11  2.8734276e-12  3.0961708e-12  3.7697676e-12  0.51009449     0.51009449     1.8508656      0              -2213.3374     0.062716816    -2213.3278     0.12543132     -2213.2825     0.18814187     -2213.2019     0.2508474      -2213.0999     0.31354762     -2212.9949     0.37624298     -2212.9059     0.43893465     -2212.8475     0.50162433     -2212.8273     0.57282304     -2212.8533     0.64402132     -2212.9275     0.71521883     -2213.0368     0.78641538     -2213.1569     0.85761095     -2213.2599     0.92880572     -2213.3225     1              -2213.3374     
